
   56  0.0000000e+00
   2.0258661  -0.5589919   1.7774593   1.6610920  -0.2297993   0.3080536
   2.7772350   0.6316914  -0.3358461   2.8025920   2.0820087   0.1445204
   1.4592407   2.7674444  -0.0633854   1.3546726   3.9708343  -0.2838313
   0.2796698   1.8914148   0.0858662   0.3435769   0.5505620   0.3124292
  -0.9058128  -0.2316914   0.6173328  -1.0577590  -1.4521450  -0.3012010
   0.1996987  -2.3377450  -0.2281604   1.4863784  -1.5372974  -0.5507464
   2.7388798  -2.4395115  -0.5408494   2.5925161  -3.6896728  -1.4244695
   1.3467275  -4.4972359  -1.0316529   0.1152597  -3.5685313  -1.1305132
  -1.0964072  -4.5084048  -0.9962350  -0.6036188  -5.8561809  -1.5882370
   0.8851100  -5.6348612  -1.9918970   1.0396419  -5.3746877  -3.5102416
   1.1848536  -6.7874671  -4.0728393   1.8380968  -7.5556634  -2.9272373
   2.4172710  -8.6135694  -2.9521195   1.6620750  -6.8412940  -1.7699136
   1.5382086  -5.0987716   0.3769033  -1.5857795  -0.9632387  -2.0061263
   2.0540760   0.3628823   2.3908577   3.0224959  -1.0373194   1.8423569
   1.2923789  -1.2437189   2.2466888   2.6205979   0.6284816  -1.4371285
   3.7635431   0.1578519  -0.1587591   3.5827320   2.6794047  -0.3664260
   3.0313006   2.1344120   1.2328957  -0.6947684   2.4065232   0.0662983
  -0.8402751  -0.6064017   1.6650982  -1.7974237   0.4203786   0.5560346
  -1.9318810  -2.0461133   0.0371091   0.2529651  -2.6830288   0.8302216
   1.3656051  -1.1851849  -1.6028299   3.6177405  -1.8589625  -0.8848928
   2.9669793  -2.7472410   0.4997109   2.5057935  -3.3577398  -2.4803449
   3.5075407  -4.3153831  -1.3573076   0.1003905  -3.1731433  -2.1716349
  -1.9788460  -4.1044059  -1.5293826  -1.3865798  -4.6278183   0.0685538
  -1.2070987  -6.1868352  -2.4566450  -0.6459134  -6.6741221  -0.8438590
   0.1869688  -4.8057584  -3.9260280   1.9631826  -4.7983907  -3.7128358
   1.7930499  -6.8739237  -4.9920956   0.2045832  -7.2669353  -4.2820786
   1.7584005  -4.3211280   1.1318385   0.6455557  -5.6514800   0.7262102
   2.3808507  -5.8156483   0.3648248  -0.3837560  -0.4709201  -2.4181270
