LIG
    43
  -6.4520000  -0.2610000  -1.7020000  -5.5200000   0.6210000  -2.3140000
  -4.3400000   0.8550000  -1.4100000  -3.1870000   0.0700000  -1.5240000
  -2.0990000   0.2740000  -0.6710000  -2.1400000   1.2650000   0.3210000
  -0.9880000   1.5080000   1.2910000  -1.2040000   0.8100000   2.6540000
  -1.2860000  -0.6610000   2.5750000   0.4070000   1.2580000   0.6900000
   0.9770000   2.1450000   0.0570000   0.8890000  -0.0230000   0.8970000
   2.0980000  -0.5860000   0.4490000   2.3530000  -1.9120000   0.8160000
   3.5280000  -2.5520000   0.4120000   4.4720000  -1.8690000  -0.3700000
   5.6650000  -2.4520000  -0.8060000   6.5960000  -1.8250000  -1.5610000
   6.3290000  -0.5470000  -1.9030000   5.1800000   0.1300000  -1.5280000
   4.2270000  -0.5350000  -0.7470000   3.0380000   0.0930000  -0.3310000
  -3.3080000   2.0360000   0.4420000  -4.3960000   1.8320000  -0.4110000
  -6.0510000  -0.5920000  -0.8800000  -5.2020000   0.1840000  -3.2660000
  -6.0280000   1.5640000  -2.5420000  -3.1240000  -0.7040000  -2.2870000
  -1.2200000  -0.3530000  -0.8030000  -0.9830000   2.5880000   1.5080000
  -0.3750000   1.0640000   3.3260000  -2.1230000   1.1810000   3.1220000
  -1.4600000  -1.0220000   3.5170000  -2.1310000  -0.9040000   2.0470000
   0.2820000  -0.6290000   1.4560000   1.6390000  -2.4660000   1.4220000
   3.7010000  -3.5830000   0.7120000   5.9140000  -3.4790000  -0.5500000
   7.0890000  -0.0620000  -2.5090000   5.0330000   1.1590000  -1.8420000
   2.8660000   1.1220000  -0.6330000  -3.3790000   2.8120000   1.2020000
  -5.2880000   2.4450000  -0.2940000
