
   43  0.0000000e+00
  -6.4515000  -0.2613000  -1.7020000  -5.5198000   0.6208000  -2.3139000
  -4.3398000   0.8547000  -1.4101000  -3.1871000   0.0704000  -1.5245000
  -2.0988000   0.2744000  -0.6708000  -2.1403000   1.2653000   0.3206000
  -0.9877000   1.5082000   1.2908000  -1.2036000   0.8103000   2.6539000
  -1.2858000  -0.6611000   2.5752000   0.4067000   1.2580000   0.6896000
   0.9765000   2.1452000   0.0566000   0.8890000  -0.0227000   0.8966000
   2.0982000  -0.5862000   0.4486000   2.3526000  -1.9124000   0.8155000
   3.5277000  -2.5516000   0.4120000   4.4717000  -1.8690000  -0.3705000
   5.6649000  -2.4523000  -0.8058000   6.5961000  -1.8245000  -1.5609000
   6.3292000  -0.5475000  -1.9034000   5.1797000   0.1301000  -1.5282000
   4.2271000  -0.5352000  -0.7467000   3.0376000   0.0934000  -0.3308000
  -3.3083000   2.0364000   0.4419000  -4.3957000   1.8320000  -0.4109000
  -6.0511000  -0.5923000  -0.8803000  -5.2020000   0.1838000  -3.2664000
  -6.0277000   1.5639000  -2.5416000  -3.1239000  -0.7044000  -2.2866000
  -1.2203000  -0.3534000  -0.8035000  -0.9826000   2.5879000   1.5079000
  -0.3752000   1.0643000   3.3257000  -2.1234000   1.1805000   3.1220000
  -1.4603000  -1.0223000   3.5169000  -2.1308000  -0.9039000   2.0466000
   0.2822000  -0.6286000   1.4560000   1.6394000  -2.4657000   1.4221000
   3.7012000  -3.5826000   0.7117000   5.9144000  -3.4787000  -0.5499000
   7.0891000  -0.0621000  -2.5093000   5.0331000   1.1586000  -1.8418000
   2.8664000   1.1223000  -0.6329000  -3.3794000   2.8123000   1.2022000
  -5.2876000   2.4450000  -0.2943000
