%VERSION  VERSION_STAMP = V0001.000  DATE = 10/09/26  15:20:49                  
%FLAG TITLE                                                                     
%FORMAT(20a4)                                                                   
LIG                                                                             
%FLAG POINTERS                                                                  
%FORMAT(10I8)                                                                   
      61      12      27      37      56      51     108      83       0       0
     322       1      37      51      83      18      35      34      13       0
       0       0       0       0       0       0       0       0      61       0
       0
%FLAG ATOM_NAME                                                                 
%FORMAT(20a4)                                                                   
C1  C2  C3  C4  C5  C6  O1  O2  C7  C8  C9  C10 C11 C12 C13 N1  C14 O3  N2  C15 
C16 C17 C18 C19 N3  C20 C21 C22 C23 C24 C25 C26 C27 C28 H1  H2  H3  H4  H5  H6  
H7  H8  H9  H10 H11 H12 H13 H14 H15 H16 H17 H18 H19 H20 H21 H22 H23 H24 H25 H26 
H27 
%FLAG CHARGE                                                                    
%FORMAT(5E16.8)                                                                 
 -1.12613814E+00 -6.25024890E-01 -2.84267880E+00 -1.20267180E+00 -2.65316688E+00
  1.19301398E+01 -1.02044880E+01 -7.83376677E+00  3.27454731E+00 -2.04636429E+00
 -2.05911990E+00 -2.19578715E+00 -1.68191829E+00 -1.59262902E+00  3.29459184E+00
 -1.67973161E+01  1.23018747E+01 -1.09898691E+01 -8.49341403E+00  1.72382958E+00
 -2.69690040E+00 -1.47600630E+00 -3.35836989E+00  7.83923346E+00 -1.22453856E+01
  7.05567456E+00 -4.34237409E+00  2.91556800E-01 -3.58979310E+00 -2.19578715E+00
 -2.05911990E+00  1.27556100E-02 -1.12613814E+00 -2.86090110E+00  9.05648310E-01
  9.05648310E-01  9.05648310E-01  2.55112200E+00  2.86090110E+00  1.31565006E+00
  1.31565006E+00  2.70601155E+00  2.61490005E+00  1.47053961E+00  7.23425310E-01
  7.23425310E-01  6.58371699E+00  6.58371699E+00  5.98602555E+00  3.17068020E+00
  2.53289970E+00  3.84490530E-01  3.84490530E-01  2.58756660E+00  2.49645510E+00
  2.61490005E+00  2.70601155E+00  1.02105014E+00  1.02105014E+00  1.02105014E+00
  2.51467740E+00
%FLAG ATOMIC_NUMBER                                                             
%FORMAT(10I8)                                                                   
       6       6       6       6       6       6       8       8       6       6
       6       6       6       6       6       7       6       8       7       6
       6       6       6       6       7       6       6       6       6       6
       6       6       6       6       1       1       1       1       1       1
       1       1       1       1       1       1       1       1       1       1
       1       1       1       1       1       1       1       1       1       1
       1
%FLAG MASS                                                                      
%FORMAT(5E16.8)                                                                 
  1.20100000E+01  1.20100000E+01  1.20100000E+01  1.20100000E+01  1.20100000E+01
  1.20100000E+01  1.60000000E+01  1.60000000E+01  1.20100000E+01  1.20100000E+01
  1.20100000E+01  1.20100000E+01  1.20100000E+01  1.20100000E+01  1.20100000E+01
  1.40100000E+01  1.20100000E+01  1.60000000E+01  1.40100000E+01  1.20100000E+01
  1.20100000E+01  1.20100000E+01  1.20100000E+01  1.20100000E+01  1.40100000E+01
  1.20100000E+01  1.20100000E+01  1.20100000E+01  1.20100000E+01  1.20100000E+01
  1.20100000E+01  1.20100000E+01  1.20100000E+01  1.20100000E+01  1.00800000E+00
  1.00800000E+00  1.00800000E+00  1.00800000E+00  1.00800000E+00  1.00800000E+00
  1.00800000E+00  1.00800000E+00  1.00800000E+00  1.00800000E+00  1.00800000E+00
  1.00800000E+00  1.00800000E+00  1.00800000E+00  1.00800000E+00  1.00800000E+00
  1.00800000E+00  1.00800000E+00  1.00800000E+00  1.00800000E+00  1.00800000E+00
  1.00800000E+00  1.00800000E+00  1.00800000E+00  1.00800000E+00  1.00800000E+00
  1.00800000E+00
%FLAG ATOM_TYPE_INDEX                                                           
%FORMAT(10I8)                                                                   
       1       2       2       2       2       2       3       4       1       2
       2       2       2       1       1       5       2       3       6       2
       2       2       2       2       7       2       2       2       2       2
       2       2       1       2       8       8       8       9       9      10
      10       9       9       8      10      10      11      11      11       9
       9      12      12       9       9       9       9       8       8       8
       9
%FLAG NUMBER_EXCLUDED_ATOMS                                                     
%FORMAT(10I8)                                                                   
      10      12      11       9      13      10       3       7       9      11
      10      10      15      16      10       6      10       4       9      10
       9       9      11       8       6       6       5       6       4       5
       5       7       5       8       2       1       1       1       1       1
       1       1       1       2       3       2       1       1       1       1
       1       1       1       1       1       1       1       2       1       1
       1
%FLAG NONBONDED_PARM_INDEX                                                      
%FORMAT(10I8)                                                                   
       1       2       4       7      11      16      22      29      37      46
      56      67       2       3       5       8      12      17      23      30
      38      47      57      68       4       5       6       9      13      18
      24      31      39      48      58      69       7       8       9      10
      14      19      25      32      40      49      59      70      11      12
      13      14      15      20      26      33      41      50      60      71
      16      17      18      19      20      21      27      34      42      51
      61      72      22      23      24      25      26      27      28      35
      43      52      62      73      29      30      31      32      33      34
      35      36      44      53      63      74      37      38      39      40
      41      42      43      44      45      54      64      75      46      47
      48      49      50      51      52      53      54      55      65      76
      56      57      58      59      60      61      62      63      64      65
      66      77      67      68      69      70      71      72      73      74
      75      76      77      78
%FLAG RESIDUE_LABEL                                                             
%FORMAT(20a4)                                                                   
LIG 
%FLAG RESIDUE_POINTER                                                           
%FORMAT(10I8)                                                                   
       1
%FLAG BOND_FORCE_CONSTANT                                                       
%FORMAT(5E16.8)                                                                 
  2.43910000E+02  3.45250000E+02  3.54250000E+02  3.60690000E+02  2.62840000E+02
  5.90600000E+02  3.51310000E+02  2.82270000E+02  3.44220000E+02  2.28890000E+02
  2.34850000E+02  2.53810000E+02  4.60680000E+02  3.36070000E+02  3.06730000E+02
  4.73590000E+02  3.86490000E+02  3.56820000E+02
%FLAG BOND_EQUIL_VALUE                                                          
%FORMAT(5E16.8)                                                                 
  1.51470000E+00  1.09620000E+00  1.39860000E+00  1.08600000E+00  1.49070000E+00
  1.21900000E+00  1.36210000E+00  1.42730000E+00  1.09690000E+00  1.53540000E+00
  1.52700000E+00  1.46510000E+00  1.01920000E+00  1.37980000E+00  1.40700000E+00
  1.01320000E+00  1.33920000E+00  1.08850000E+00
%FLAG ANGLE_FORCE_CONSTANT                                                      
%FORMAT(5E16.8)                                                                 
  6.07400000E+01  4.36100000E+01  6.36700000E+01  4.49000000E+01  6.14400000E+01
  7.79600000E+01  7.85800000E+01  8.94300000E+01  1.01260000E+02  7.76000000E+01
  5.62000000E+01  4.38100000E+01  6.03300000E+01  6.08400000E+01  6.54800000E+01
  4.32800000E+01  7.64500000E+01  6.61000000E+01  6.03600000E+01  4.32700000E+01
  5.61700000E+01  4.82100000E+01  4.36300000E+01  7.66200000E+01  5.73700000E+01
  8.72100000E+01  6.73400000E+01  5.66800000E+01  6.81700000E+01  4.48000000E+01
  8.31500000E+01  5.01000000E+01  3.58000000E+01  3.56400000E+01  4.78900000E+01
%FLAG ANGLE_EQUIL_VALUE                                                         
%FORMAT(5E16.8)                                                                 
  2.10888224E+00  1.93085858E+00  2.09474507E+00  2.09230160E+00  2.10015559E+00
  2.13977458E+00  1.96192545E+00  2.02144121E+00  2.15024656E+00  1.90031530E+00
  1.92579712E+00  1.91288168E+00  1.96209999E+00  1.94010883E+00  1.93574550E+00
  1.91270715E+00  2.14501057E+00  2.00765310E+00  1.94482122E+00  1.91427794E+00
  1.91305621E+00  1.88705080E+00  1.90153704E+00  2.22547028E+00  2.04657396E+00
  2.14762857E+00  2.09771213E+00  2.02528093E+00  2.14570870E+00  2.09998106E+00
  2.04622489E+00  2.02493187E+00  1.88024401E+00  1.89455572E+00  1.85668205E+00
%FLAG DIHEDRAL_FORCE_CONSTANT                                                   
%FORMAT(5E16.8)                                                                 
  3.62500000E+00  0.00000000E+00  5.80000000E-01  1.00000000E+00  1.60000000E+00
  3.67000000E+00  3.10000000E-01  3.83333333E-01  1.40000000E+00  2.70000000E+00
  0.00000000E+00  2.40000000E-01  6.20000000E-01  1.55555556E-01  0.00000000E+00
  3.00000000E-02  1.41000000E+00  1.03000000E+00  8.70000000E-01  2.50000000E+00
  6.80000000E-01  2.00000000E-01  4.40000000E-01  1.05000000E+00  5.00000000E-02
  1.41000000E+00  4.03000000E+00  3.66000000E+00  2.00000000E+00  4.50000000E-01
  4.80000000E+00  3.00000000E-01  1.10000000E+00  1.05000000E+01
%FLAG DIHEDRAL_PERIODICITY                                                      
%FORMAT(5E16.8)                                                                 
  2.00000000E+00  1.00000000E+00  2.00000000E+00  2.00000000E+00  1.00000000E+00
  2.00000000E+00  3.00000000E+00  3.00000000E+00  1.00000000E+00  2.00000000E+00
  2.00000000E+00  2.00000000E+00  1.00000000E+00  3.00000000E+00  2.00000000E+00
  3.00000000E+00  1.00000000E+00  2.00000000E+00  3.00000000E+00  2.00000000E+00
  1.00000000E+00  2.00000000E+00  3.00000000E+00  3.00000000E+00  3.00000000E+00
  2.00000000E+00  1.00000000E+00  2.00000000E+00  1.00000000E+00  2.00000000E+00
  2.00000000E+00  3.00000000E+00  2.00000000E+00  2.00000000E+00
%FLAG DIHEDRAL_PHASE                                                            
%FORMAT(5E16.8)                                                                 
  3.14159400E+00  0.00000000E+00  3.14159400E+00  3.14159400E+00  3.14159400E+00
  3.14159400E+00  0.00000000E+00  0.00000000E+00  3.14159400E+00  3.14159400E+00
  0.00000000E+00  3.14159400E+00  3.14159400E+00  0.00000000E+00  3.14159400E+00
  3.14159400E+00  3.14159400E+00  3.14159400E+00  0.00000000E+00  3.14159400E+00
  0.00000000E+00  3.14159400E+00  3.14159400E+00  3.14159400E+00  0.00000000E+00
  3.14159400E+00  0.00000000E+00  3.14159400E+00  0.00000000E+00  3.14159400E+00
  3.14159400E+00  0.00000000E+00  3.14159400E+00  3.14159400E+00
%FLAG SCEE_SCALE_FACTOR                                                         
%FORMAT(5E16.8)                                                                 
  1.20000000E+00  1.20000000E+00  1.20000000E+00  1.20000000E+00  1.20000000E+00
  1.20000000E+00  1.20000000E+00  1.20000000E+00  1.20000000E+00  1.20000000E+00
  1.20000000E+00  1.20000000E+00  1.20000000E+00  1.20000000E+00  1.20000000E+00
  1.20000000E+00  1.20000000E+00  1.20000000E+00  1.20000000E+00  1.20000000E+00
  1.20000000E+00  1.20000000E+00  1.20000000E+00  1.20000000E+00  1.20000000E+00
  1.20000000E+00  1.20000000E+00  1.20000000E+00  1.20000000E+00  1.20000000E+00
  1.20000000E+00  1.20000000E+00  0.00000000E+00  0.00000000E+00
%FLAG SCNB_SCALE_FACTOR                                                         
%FORMAT(5E16.8)                                                                 
  2.00000000E+00  2.00000000E+00  2.00000000E+00  2.00000000E+00  2.00000000E+00
  2.00000000E+00  2.00000000E+00  2.00000000E+00  2.00000000E+00  2.00000000E+00
  2.00000000E+00  2.00000000E+00  2.00000000E+00  2.00000000E+00  2.00000000E+00
  2.00000000E+00  2.00000000E+00  2.00000000E+00  2.00000000E+00  2.00000000E+00
  2.00000000E+00  2.00000000E+00  2.00000000E+00  2.00000000E+00  2.00000000E+00
  2.00000000E+00  2.00000000E+00  2.00000000E+00  2.00000000E+00  2.00000000E+00
  2.00000000E+00  2.00000000E+00  0.00000000E+00  0.00000000E+00
%FLAG SOLTY                                                                     
%FORMAT(5E16.8)                                                                 
  0.00000000E+00  0.00000000E+00  0.00000000E+00  0.00000000E+00  0.00000000E+00
  0.00000000E+00  0.00000000E+00  0.00000000E+00  0.00000000E+00  0.00000000E+00
  0.00000000E+00  0.00000000E+00  0.00000000E+00
%FLAG LENNARD_JONES_ACOEF                                                       
%FORMAT(5E16.8)                                                                 
  1.02073671E+06  8.43969952E+05  6.96551276E+05  6.30925504E+05  5.17507491E+05
  3.76435470E+05  5.42502534E+05  4.46121722E+05  3.27367585E+05  2.83662575E+05
  8.65620051E+05  7.19505991E+05  5.47655232E+05  4.67405154E+05  7.22850509E+05
  8.48258258E+05  6.99381362E+05  5.17814271E+05  4.47026838E+05  7.25299868E+05
  7.01825028E+05  9.31115275E+05  7.69642101E+05  5.74782316E+05  4.94433451E+05
  7.90296020E+05  7.73425391E+05  8.49322032E+05  1.00235148E+05  8.12662403E+04
  5.68021765E+04  5.02224902E+04  8.99910629E+04  8.07866982E+04  9.11435380E+04
  7.94617769E+03  9.27554496E+04  7.52549148E+04  5.27277400E+04  4.65732396E+04
  8.31063842E+04  7.48403283E+04  8.43518904E+04  7.41026906E+03  6.90855956E+03
  6.97998263E+04  5.63013422E+04  3.86646725E+04  3.44374471E+04  6.36026248E+04
  5.58085097E+04  6.34160397E+04  5.22955465E+03  4.88692384E+03  3.39005767E+03
  2.23577481E+03  1.71458823E+03  9.87857350E+02  9.46795083E+02  2.35480845E+03
  1.65195713E+03  2.01475241E+03  9.47421632E+01  9.04434904E+01  5.24570081E+01
  1.34728399E-01  7.75673747E+04  6.27751680E+04  4.36069364E+04  3.86549715E+04
  7.00036842E+04  6.23418310E+04  7.05112106E+04  6.02863188E+03  5.62610481E+03
  3.94664935E+03  6.76796831E+01  4.56536476E+03
%FLAG LENNARD_JONES_BCOEF                                                       
%FORMAT(5E16.8)                                                                 
  6.63431737E+02  5.90251928E+02  5.24668528E+02  5.62969425E+02  4.98871431E+02
  4.69350655E+02  4.38146883E+02  3.88758656E+02  3.67361018E+02  2.87011518E+02
  4.52010965E+02  4.03215362E+02  3.88056827E+02  3.00892616E+02  3.05601515E+02
  6.17825399E+02  5.48900066E+02  5.21008860E+02  4.06301077E+02  4.22674891E+02
  5.74088001E+02  6.12468585E+02  5.44830041E+02  5.19385932E+02  4.04310927E+02
  4.17467748E+02  5.70234696E+02  5.65406768E+02  1.37787728E+02  1.21392023E+02
  1.11953944E+02  8.83545880E+01  9.65931103E+01  1.26366740E+02  1.27000718E+02
  2.57122925E+01  1.24325688E+02  1.09570372E+02  1.01173582E+02  7.98066064E+01
  8.70671420E+01  1.14083104E+02  1.14599119E+02  2.32899892E+01  2.10929191E+01
  1.14981426E+02  1.01040256E+02  9.23664132E+01  7.31636661E+01  8.12052260E+01
  1.05029928E+02  1.05935811E+02  2.08590256E+01  1.89134207E+01  1.67944276E+01
  1.71355763E+01  1.46824710E+01  1.22938581E+01  1.01016461E+01  1.30109323E+01
  1.50468782E+01  1.57231024E+01  2.33785449E+00  2.14252117E+00  1.73959275E+00
  7.34107347E-02  1.13692208E+02  1.00073628E+02  9.20079458E+01  7.27065100E+01
  7.99093400E+01  1.04122183E+02  1.04776275E+02  2.10068861E+01  1.90347353E+01
  1.69967767E+01  1.85338491E+00  1.71467049E+01
%FLAG BONDS_INC_HYDROGEN                                                        
%FORMAT(10I8)                                                                   
       0     102       2       0     105       2       0     108       2       6
     111       4       9     114       4      24     117       9      24     120
       9      30     123       4      33     126       4      39     129       2
      42     132       9      42     135       9      45     138      13      45
     141      13      54     144      16      60     147       4      63     150
       4      69     153      18      75     156      18      78     159       4
      84     162       4      87     165       4      90     168       4      96
     171       2      96     174       2      96     177       2      99     180
       4
%FLAG BONDS_WITHOUT_HYDROGEN                                                    
%FORMAT(10I8)                                                                   
       0       3       1       3       6       3       3      99       3       6
       9       3       9      12       3      12      15       5      12      93
       3      15      18       6      15      21       7      21      24       8
      24      27       1      27      30       3      27      90       3      30
      33       3      33      36       3      36      39       1      36      87
       3      39      42      10      39      48      11      42      45      12
      48      51       6      48      54      14      54      57      15      57
      60       3      57      84       3      60      63       3      63      66
       3      66      69       3      66      81       3      69      72      17
      72      75      17      75      78       3      78      81       3      81
      84       3      87      90       3      93      96       1      93      99
       3
%FLAG ANGLES_INC_HYDROGEN                                                       
%FORMAT(10I8)                                                                   
       3       0     102       2       3       0     105       2       3       0
     108       2       3       6     111       4       3      99     180       4
       6       9     114       4       9       6     111       4      12       9
     114       4      21      24     117      11      21      24     120      11
      27      24     117      12      27      24     120      12      27      30
     123       4      27      90     168       4      30      33     126       4
      33      30     123       4      36      33     126       4      36      39
     129       2      36      87     165       4      39      42     132      16
      39      42     135      16      42      39     129      20      42      45
     138      21      42      45     141      21      45      42     132      22
      45      42     135      22      48      39     129      23      48      54
     144      25      57      54     144      28      57      60     147       4
      57      84     162       4      60      63     150       4      63      60
     147       4      66      63     150       4      66      69     153      30
      72      69     153      32      72      75     156      32      75      78
     159       4      78      75     156      30      81      78     159       4
      81      84     162       4      87      90     168       4      90      87
     165       4      93      96     171       2      93      96     174       2
      93      96     177       2      93      99     180       4     102       0
     105      33     102       0     108      33     105       0     108      33
     117      24     120      34     132      42     135      34     138      45
     141      35     171      96     174      33     171      96     177      33
     174      96     177      33
%FLAG ANGLES_WITHOUT_HYDROGEN                                                   
%FORMAT(10I8)                                                                   
       0       3       6       1       0       3      99       1       3       6
       9       3       3      99      93       3       6       3      99       3
       6       9      12       3       9      12      15       5       9      12
      93       3      12      15      18       6      12      15      21       7
      12      93      96       1      12      93      99       3      15      12
      93       5      15      21      24       8      18      15      21       9
      21      24      27      10      24      27      30       1      24      27
      90       1      27      30      33       3      27      90      87       3
      30      27      90       3      30      33      36       3      33      36
      39       1      33      36      87       3      36      39      42      13
      36      39      48      14      36      87      90       3      39      36
      87       1      39      42      45      15      39      48      51      17
      39      48      54      18      42      39      48      19      48      54
      57      24      51      48      54      26      54      57      60      27
      54      57      84      27      57      60      63       3      57      84
      81       3      60      57      84       3      60      63      66       3
      63      66      69       3      63      66      81       3      66      69
      72      29      66      81      78       3      66      81      84       3
      69      66      81       3      69      72      75      31      72      75
      78      29      75      78      81       3      78      81      84       3
      96      93      99       1
%FLAG DIHEDRALS_INC_HYDROGEN                                                    
%FORMAT(10I8)                                                                   
       0       3       6     111       1       0       3      99     180       1
       3       6       9     114       1     102       0       3       6       2
     105       0       3       6       2     108       0       3       6       2
       6       3      99     180       1      12       9       6     111       1
      12      93      96     171       2      12      93      96     174       2
      12      93      96     177       2      12      93      99     180       1
      15      12       9     114       1      15      21      24     117       8
      15      21      24     120       8      24      27      30     123       1
      24      27      90     168       1      27      30      33     126       1
      27      90      87     165       1      30      27      24     117      11
      30      27      24     120      11      30      27      90     168       1
      33      36      39     129       2      33      36     -39     129      11
      33      36      87     165       1      36      33      30     123       1
      36      39      42     132      14      36      39      42     135      14
      36      87      90     168       1      39      36      33     126       1
      39      36      87     165       1      39      42      45     138      16
      39      42      45     141      16      39      48      54     144      20
      45      42      39     129      25      48      39      42     132      14
      48      39      42     135      14      51      48      39     129      27
      51      48     -39     129      28      51      48      54     144      29
      51      48     -54     144      20      54      48      39     129      15
      54      57      60     147       1      54      57      84     162       1
      57      60      63     150       1      60      57      54     144      30
      60      57      84     162       1      63      66      69     153       1
      66      63      60     147       1      66      81      78     159       1
      66      81      84     162       1      69      66      63     150       1
      69      72      75     156      31      72      75      78     159       1
      75      72      69     153      31      78      81      84     162       1
      81      78      75     156       1      81      66      63     150       1
      81      66      69     153       1      84      81      78     159       1
      84      57      54     144      30      84      57      60     147       1
      87      36      33     126       1      87      36      39     129       2
      87      36     -39     129      11      90      27      24     117      11
      90      27      24     120      11      90      27      30     123       1
      93      12       9     114       1      96      93      99     180       1
      99      93      96     171       2      99      93     -96     171      11
      99      93      96     174       2      99      93     -96     174      11
      99      93      96     177       2      99      93     -96     177      11
     102       0       3      99       2     102       0      -3      99      11
     105       0       3      99       2     105       0      -3      99      11
     108       0       3      99       2     108       0      -3      99      11
      99       3       6     111       1     111       6       9     114       1
     123      30      33     126       1     129      39      42     132      14
     129      39      42     135      14     132      42      45     138      32
     132      42      45     141      32     135      42      45     138      32
     135      42      45     141      32     147      60      63     150       1
     156      75      78     159       1     165      87      90     168       1
       3       9      -6    -111      33       6      12      -9    -114      33
      27      33     -30    -123      33      30      36     -33    -126      33
      48      57     -54    -144      33      57      63     -60    -147      33
      60      66     -63    -150      33      66     153     -69     -72      34
      78     156     -75     -72      34      75      81     -78    -159      33
      57      81     -84    -162      33      36      90     -87    -165      33
      27      87     -90    -168      33       3      93     -99    -180      33
%FLAG DIHEDRALS_WITHOUT_HYDROGEN                                                
%FORMAT(10I8)                                                                   
       0       3       6       9       1       0       3      99      93       1
       3       6       9      12       1       3      99     -93      12       1
       3      99      93      96       1       6       3      99      93       1
       6       9      12      15       1       6       9     -12      93       1
       9       6       3      99       1       9      12      15      18       3
       9      12      15      21       4       9      12      93      96       1
       9      12     -93      99       1      12      15      21      24       5
      12      15     -21      24       6      12      15     -21      24       7
      15      12      93      96       1      15      12      93      99       1
      15      21      24      27       8      18      15      12      93       3
      18      15      21      24       9      18      15     -21      24      10
      21      15      12      93       4      21      24      27      30      11
      21      24      27      90      11      24      27      30      33       1
      24      27      90      87       1      27      30      33      36       1
      27      90     -87      36       1      30      27      90      87       1
      30      33      36      39       1      30      33     -36      87       1
      33      30      27      90       1      33      36      39      42      12
      33      36      39      48      11      33      36     -87      90       1
      36      39      42      45      13      36      39      48      51      15
      36      39      48      54      15      39      36      87      90       1
      39      48      54      57      17      39      48     -54      57      18
      39      48     -54      57      19      42      39      36      87      12
      42      39      48      51      21      42      39     -48      51      22
      42      39     -48      51      23      42      39      48      54      24
      45      42      39      48      14      48      39      36      87      11
      48      54      57      60      26      48      54      57      84      26
      51      48      54      57      20      54      57      60      63       1
      54      57      84      81       1      57      60      63      66       1
      57      84      81      78       1      57      84     -81      66       1
      60      57      84      81       1      60      63      66      69       1
      60      63     -66      81       1      63      60      57      84       1
      63      66      69      72       1      63      66      81      78       1
      63      66     -81      84       1      66      69      72      75      31
      66      81     -78      75       1      69      66      81      78       1
      69      66      81      84       1      69      72     -75      78      31
      72      69      66      81       1      72      75     -78      81       1
      75      78      81      84       1       0       3     -99      -6      33
      15       9     -12     -93      34      12      18     -15     -21      33
      24      30     -27     -90      33      39      33     -36     -87      33
      39      54     -48     -51      34      60      84     -57     -54      34
      63      69     -66     -81      33      66      78     -81     -84      33
      96      12     -93     -99      33
%FLAG EXCLUDED_ATOMS_LIST                                                       
%FORMAT(10I8)                                                                   
       2       3       4      32      34      35      36      37      38      61
       3       4       5      32      33      34      35      36      37      38
      39      61       4       5       6      32      34      35      36      37
      38      39      61       5       6       7       8      32      33      34
      38      39       6       7       8       9      32      33      34      38
      39      58      59      60      61       7       8       9      10      32
      33      34      39      40      41       8       9      32       9      10
      11      31      32      40      41      10      11      12      30      31
      40      41      42      57      11      12      13      30      31      40
      41      42      43      56      57      12      13      14      30      31
      40      41      42      43      57      13      14      15      17      30
      31      42      43      44      56      14      15      16      17      18
      19      30      31      42      43      44      45      46      56      57
      15      16      17      18      19      20      30      31      43      44
      45      46      47      48      49      56      16      17      18      19
      30      44      45      46      47      48      17      44      45      46
      47      48      18      19      20      21      29      30      44      45
      46      49      19      20      44      49      20      21      22      28
      29      44      49      50      55      21      22      23      27      28
      29      49      50      51      55      22      23      24      28      29
      49      50      51      55      23      24      25      27      28      29
      50      51      52      24      25      26      27      28      29      50
      51      52      54      55      25      26      27      28      29      51
      52      53      26      27      28      52      53      54      27      28
      29      52      53      54      28      29      53      54      55      29
      51      52      53      54      55      49      50      54      55      31
      43      44      56      57      40      41      42      56      57      33
      34      39      58      59      60      61      34      58      59      60
      61      35      36      37      38      58      59      60      61      36
      37      37       0      39       0      41       0      43       0      45
      46      46      47      48      47      48      48       0       0      51
       0       0      54       0       0      57       0      59      60      60
       0       0
%FLAG HBOND_ACOEF                                                               
%FORMAT(5E16.8)                                                                 

%FLAG HBOND_BCOEF                                                               
%FORMAT(5E16.8)                                                                 

%FLAG HBCUT                                                                     
%FORMAT(5E16.8)                                                                 

%FLAG AMBER_ATOM_TYPE                                                           
%FORMAT(20a4)                                                                   
c3  ca  ca  ca  ca  c   o   os  c3  ca  ca  ca  ca  c3  c3  n8  c   o   ns  ca  
ca  ca  ca  ca  nb  ca  ca  ca  ca  ca  ca  ca  c3  ca  hc  hc  hc  ha  ha  h1  
h1  ha  ha  hc  h1  h1  hn  hn  hn  ha  ha  h4  h4  ha  ha  ha  ha  hc  hc  hc  
ha  
%FLAG TREE_CHAIN_CLASSIFICATION                                                 
%FORMAT(20a4)                                                                   
BLA BLA BLA BLA BLA BLA BLA BLA BLA BLA BLA BLA BLA BLA BLA BLA BLA BLA BLA BLA 
BLA BLA BLA BLA BLA BLA BLA BLA BLA BLA BLA BLA BLA BLA BLA BLA BLA BLA BLA BLA 
BLA BLA BLA BLA BLA BLA BLA BLA BLA BLA BLA BLA BLA BLA BLA BLA BLA BLA BLA BLA 
BLA 
%FLAG JOIN_ARRAY                                                                
%FORMAT(10I8)                                                                   
       0       0       0       0       0       0       0       0       0       0
       0       0       0       0       0       0       0       0       0       0
       0       0       0       0       0       0       0       0       0       0
       0       0       0       0       0       0       0       0       0       0
       0       0       0       0       0       0       0       0       0       0
       0       0       0       0       0       0       0       0       0       0
       0
%FLAG IROTAT                                                                    
%FORMAT(10I8)                                                                   
       0       0       0       0       0       0       0       0       0       0
       0       0       0       0       0       0       0       0       0       0
       0       0       0       0       0       0       0       0       0       0
       0       0       0       0       0       0       0       0       0       0
       0       0       0       0       0       0       0       0       0       0
       0       0       0       0       0       0       0       0       0       0
       0
%FLAG RADIUS_SET                                                                
%FORMAT(1a80)                                                                   
modified Bondi radii (mbondi)                                                   
%FLAG RADII                                                                     
%FORMAT(5E16.8)                                                                 
  1.70000000E+00  1.70000000E+00  1.70000000E+00  1.70000000E+00  1.70000000E+00
  1.70000000E+00  1.50000000E+00  1.50000000E+00  1.70000000E+00  1.70000000E+00
  1.70000000E+00  1.70000000E+00  1.70000000E+00  1.70000000E+00  1.70000000E+00
  1.55000000E+00  1.70000000E+00  1.50000000E+00  1.55000000E+00  1.70000000E+00
  1.70000000E+00  1.70000000E+00  1.70000000E+00  1.70000000E+00  1.55000000E+00
  1.70000000E+00  1.70000000E+00  1.70000000E+00  1.70000000E+00  1.70000000E+00
  1.70000000E+00  1.70000000E+00  1.70000000E+00  1.70000000E+00  1.30000000E+00
  1.30000000E+00  1.30000000E+00  1.30000000E+00  1.30000000E+00  1.30000000E+00
  1.30000000E+00  1.30000000E+00  1.30000000E+00  1.30000000E+00  1.30000000E+00
  1.30000000E+00  1.30000000E+00  1.30000000E+00  1.30000000E+00  1.30000000E+00
  1.30000000E+00  1.30000000E+00  1.30000000E+00  1.30000000E+00  1.30000000E+00
  1.30000000E+00  1.30000000E+00  1.30000000E+00  1.30000000E+00  1.30000000E+00
  1.30000000E+00
%FLAG SCREEN                                                                    
%FORMAT(5E16.8)                                                                 
  7.20000000E-01  7.20000000E-01  7.20000000E-01  7.20000000E-01  7.20000000E-01
  7.20000000E-01  8.50000000E-01  8.50000000E-01  7.20000000E-01  7.20000000E-01
  7.20000000E-01  7.20000000E-01  7.20000000E-01  7.20000000E-01  7.20000000E-01
  7.90000000E-01  7.20000000E-01  8.50000000E-01  7.90000000E-01  7.20000000E-01
  7.20000000E-01  7.20000000E-01  7.20000000E-01  7.20000000E-01  7.90000000E-01
  7.20000000E-01  7.20000000E-01  7.20000000E-01  7.20000000E-01  7.20000000E-01
  7.20000000E-01  7.20000000E-01  7.20000000E-01  7.20000000E-01  8.50000000E-01
  8.50000000E-01  8.50000000E-01  8.50000000E-01  8.50000000E-01  8.50000000E-01
  8.50000000E-01  8.50000000E-01  8.50000000E-01  8.50000000E-01  8.50000000E-01
  8.50000000E-01  8.50000000E-01  8.50000000E-01  8.50000000E-01  8.50000000E-01
  8.50000000E-01  8.50000000E-01  8.50000000E-01  8.50000000E-01  8.50000000E-01
  8.50000000E-01  8.50000000E-01  8.50000000E-01  8.50000000E-01  8.50000000E-01
  8.50000000E-01
%FLAG IPOL                                                                      
%FORMAT(1I8)                                                                    
       0
