LIG
    61
   8.8250000  -1.1010000   1.4190000   7.5450000  -0.3400000   1.2320000
   6.5090000  -0.4600000   2.1610000   5.3070000   0.2190000   1.9640000
   5.1190000   1.0150000   0.8250000   3.8010000   1.6810000   0.7020000
   3.2360000   2.2300000   1.6340000   3.3200000   1.5070000  -0.5510000
   1.9940000   1.9970000  -0.7740000   1.0140000   0.8570000  -0.6610000
   0.7980000  -0.0070000  -1.7400000  -0.0870000  -1.0820000  -1.6230000
  -0.7720000  -1.3170000  -0.4210000  -1.7510000  -2.4820000  -0.3180000
  -1.1780000  -3.6790000   0.4770000  -0.9910000  -3.4560000   1.9160000
  -3.1570000  -2.0760000   0.1640000  -3.7630000  -2.7320000   1.0090000
  -3.6610000  -0.9670000  -0.5040000  -4.9330000  -0.3730000  -0.3640000
  -5.9410000  -0.8710000   0.4610000  -7.1780000  -0.2220000   0.5390000
  -7.4260000   0.9390000  -0.2100000  -8.6420000   1.6260000  -0.1700000
  -8.9140000   2.7460000  -0.8790000  -7.9260000   3.2110000  -1.6700000
  -6.6810000   2.6110000  -1.7870000  -6.4180000   1.4510000  -1.0470000
  -5.1800000   0.7860000  -1.1140000  -0.5360000  -0.4610000   0.6640000
   0.3480000   0.6130000   0.5450000   6.1570000   1.1640000  -0.1150000
   6.0300000   2.0260000  -1.3390000   7.3570000   0.4600000   0.0950000
   8.7540000  -2.0770000   0.9300000   9.0380000  -1.2530000   2.4830000
   9.6720000  -0.5510000   0.9950000   6.6290000  -1.0840000   3.0440000
   4.5080000   0.1170000   2.6960000   1.7270000   2.8250000  -0.1060000
   1.9630000   2.4100000  -1.7890000   1.3310000   0.1440000  -2.6770000
  -0.2270000  -1.7390000  -2.4780000  -1.9220000  -2.8540000  -1.3390000
  -1.8470000  -4.5400000   0.3570000  -0.2100000  -3.9690000   0.0500000
  -0.6730000  -4.3220000   2.3500000  -1.9120000  -3.2680000   2.3260000
  -3.0230000  -0.4990000  -1.1370000  -5.8020000  -1.7650000   1.0600000
  -7.9450000  -0.6320000   1.1920000  -9.4610000   1.2820000   0.4560000
  -8.1660000   4.1120000  -2.2280000  -5.9360000   3.0460000  -2.4440000
  -4.4020000   1.1880000  -1.7600000  -1.0280000  -0.6320000   1.6210000
   0.5270000   1.2510000   1.4100000   7.0140000   2.2860000  -1.7420000
   5.5300000   2.9710000  -1.1020000   5.4720000   1.4990000  -2.1180000
   8.1620000   0.5410000  -0.6350000
