
   61  0.0000000e+00
   8.8251000  -1.1010000   1.4191000   7.5455000  -0.3397000   1.2316000
   6.5091000  -0.4596000   2.1613000   5.3067000   0.2191000   1.9637000
   5.1191000   1.0154000   0.8246000   3.8007000   1.6813000   0.7019000
   3.2360000   2.2296000   1.6342000   3.3195000   1.5072000  -0.5510000
   1.9935000   1.9971000  -0.7743000   1.0145000   0.8574000  -0.6613000
   0.7984000  -0.0075000  -1.7405000  -0.0871000  -1.0817000  -1.6229000
  -0.7719000  -1.3167000  -0.4206000  -1.7508000  -2.4820000  -0.3177000
  -1.1780000  -3.6795000   0.4774000  -0.9907000  -3.4563000   1.9158000
  -3.1570000  -2.0760000   0.1642000  -3.7629000  -2.7321000   1.0090000
  -3.6614000  -0.9670000  -0.5039000  -4.9326000  -0.3734000  -0.3641000
  -5.9407000  -0.8705000   0.4608000  -7.1780000  -0.2220000   0.5393000
  -7.4258000   0.9385000  -0.2103000  -8.6419000   1.6256000  -0.1702000
  -8.9138000   2.7459000  -0.8793000  -7.9257000   3.2114000  -1.6696000
  -6.6815000   2.6113000  -1.7869000  -6.4184000   1.4514000  -1.0468000
  -5.1798000   0.7863000  -1.1141000  -0.5362000  -0.4611000   0.6641000
   0.3482000   0.6132000   0.5452000   6.1572000   1.1636000  -0.1147000
   6.0298000   2.0263000  -1.3385000   7.3568000   0.4595000   0.0946000
   8.7544000  -2.0771000   0.9296000   9.0379000  -1.2530000   2.4826000
   9.6718000  -0.5514000   0.9945000   6.6288000  -1.0836000   3.0444000
   4.5078000   0.1175000   2.6963000   1.7271000   2.8252000  -0.1058000
   1.9626000   2.4103000  -1.7894000   1.3314000   0.1441000  -2.6768000
  -0.2267000  -1.7394000  -2.4784000  -1.9220000  -2.8545000  -1.3394000
  -1.8471000  -4.5404000   0.3568000  -0.2103000  -3.9688000   0.0504000
  -0.6729000  -4.3221000   2.3498000  -1.9116000  -3.2685000   2.3265000
  -3.0230000  -0.4993000  -1.1375000  -5.8016000  -1.7649000   1.0596000
  -7.9454000  -0.6325000   1.1922000  -9.4609000   1.2815000   0.4562000
  -8.1659000   4.1122000  -2.2276000  -5.9361000   3.0459000  -2.4441000
  -4.4018000   1.1876000  -1.7599000  -1.0285000  -0.6318000   1.6205000
   0.5275000   1.2510000   1.4100000   7.0145000   2.2864000  -1.7422000
   5.5298000   2.9712000  -1.1023000   5.4723000   1.4989000  -2.1184000
   8.1619000   0.5414000  -0.6347000
