%VERSION  VERSION_STAMP = V0001.000  DATE = 10/09/26  15:55:43
%FLAG TITLE
%FORMAT(20a4)
LIG 
%FLAG POINTERS
%FORMAT(10I8)
      43      13      19      26      39      35      75      56       0       0
     227       1      26      35      56      17      30      28      14       0
       0       0       0       0       0       0       0       0      43       0
       0
%FLAG ATOM_NAME
%FORMAT(20a4)
O1  C1  C2  C3  C4  C5  C6  C7  N1  C8  O2  N2  C9  C10 C11 C12 C13 N3  C14 C15 
C16 C17 C18 C19 H1  H2  H3  H4  H5  H6  H7  H8  H9  H10 H11 H12 H13 H14 H15 H16 
H17 H18 H19 
%FLAG CHARGE
%FORMAT(5E16.8)
 -1.08212493E+01  3.10969906E+00 -2.33876864E+00 -2.10552320E+00 -2.34241310E+00
 -1.42765364E+00 -1.70281037E+00  2.96574289E+00 -1.70532759E+01  1.22099156E+01
 -1.08631606E+01 -8.27559398E+00  1.52253673E+00 -3.08041625E+00 -1.42218695E+00
 -3.41388434E+00  7.78371901E+00 -1.22462332E+01  7.00016011E+00 -4.23388784E+00
  2.54264649E-01 -3.08041625E+00 -2.34241310E+00 -2.10552320E+00  7.30629475E+00
  1.05057916E+00  1.05057916E+00  2.60494135E+00  2.53205215E+00  1.85236036E+00
  7.59022359E-01  7.59022359E-01  6.57375829E+00  6.57375829E+00  6.24029020E+00
  2.45916295E+00  2.47738525E+00  3.47198379E-01  3.83642979E-01  2.67783055E+00
  3.22449955E+00  2.53205215E+00  2.60494135E+00
%FLAG ATOMIC_NUMBER
%FORMAT(10I8)
       8       6       6       6       6       6       6       6       7       6
       8       7       6       6       6       6       6       7       6       6
       6       6       6       6       1       1       1       1       1       1
       1       1       1       1       1       1       1       1       1       1
       1       1       1
%FLAG MASS
%FORMAT(5E16.8)
  1.60000000E+01  1.20100000E+01  1.20100000E+01  1.20100000E+01  1.20100000E+01
  1.20100000E+01  1.20100000E+01  1.20100000E+01  1.40100000E+01  1.20100000E+01
  1.60000000E+01  1.40100000E+01  1.20100000E+01  1.20100000E+01  1.20100000E+01
  1.20100000E+01  1.20100000E+01  1.40100000E+01  1.20100000E+01  1.20100000E+01
  1.20100000E+01  1.20100000E+01  1.20100000E+01  1.20100000E+01  1.00800000E+00
  1.00800000E+00  1.00800000E+00  1.00800000E+00  1.00800000E+00  1.00800000E+00
  1.00800000E+00  1.00800000E+00  1.00800000E+00  1.00800000E+00  1.00800000E+00
  1.00800000E+00  1.00800000E+00  1.00800000E+00  1.00800000E+00  1.00800000E+00
  1.00800000E+00  1.00800000E+00  1.00800000E+00
%FLAG ATOM_TYPE_INDEX
%FORMAT(10I8)
       1       2       3       3       3       3       2       2       4       3
       5       6       3       3       3       3       3       7       3       3
       3       3       3       3       8       9       9      10      10      11
       9       9      12      12      12      10      10      13      13      10
      10      10      10
%FLAG NUMBER_EXCLUDED_ATOMS
%FORMAT(10I8)
       7      10      12      10      10      15      16      10       6      10
       4       9      10       9       9      11       8       6       6       5
       6       4       5       5       2       1       1       1       1       2
       3       2       1       1       1       1       1       1       1       1
       1       1       1
%FLAG NONBONDED_PARM_INDEX
%FORMAT(10I8)
       1       2       4       7      11      16      22      29      37      46
      56      67      79       2       3       5       8      12      17      23
      30      38      47      57      68      80       4       5       6       9
      13      18      24      31      39      48      58      69      81       7
       8       9      10      14      19      25      32      40      49      59
      70      82      11      12      13      14      15      20      26      33
      41      50      60      71      83      16      17      18      19      20
      21      27      34      42      51      61      72      84      22      23
      24      25      26      27      28      35      43      52      62      73
      85      29      30      31      32      33      34      35      36      44
      53      63      74      86      37      38      39      40      41      42
      43      44      45      54      64      75      87      46      47      48
      49      50      51      52      53      54      55      65      76      88
      56      57      58      59      60      61      62      63      64      65
      66      77      89      67      68      69      70      71      72      73
      74      75      76      77      78      90      79      80      81      82
      83      84      85      86      87      88      89      90      91
%FLAG RESIDUE_LABEL
%FORMAT(20a4)
LIG 
%FLAG RESIDUE_POINTER
%FORMAT(10I8)
       1
%FLAG BOND_FORCE_CONSTANT
%FORMAT(5E16.8)
  2.85150000E+02  5.35510000E+02  2.43910000E+02  3.44220000E+02  3.54250000E+02
  3.60690000E+02  2.28890000E+02  2.34850000E+02  3.45250000E+02  2.53810000E+02
  4.60680000E+02  5.90600000E+02  3.36070000E+02  3.06730000E+02  4.73590000E+02
  3.86490000E+02  3.56820000E+02
%FLAG BOND_EQUIL_VALUE
%FORMAT(5E16.8)
  1.42420000E+00  9.72500000E-01  1.51470000E+00  1.09690000E+00  1.39860000E+00
  1.08600000E+00  1.53540000E+00  1.52700000E+00  1.09620000E+00  1.46510000E+00
  1.01920000E+00  1.21900000E+00  1.37980000E+00  1.40700000E+00  1.01320000E+00
  1.33920000E+00  1.08850000E+00
%FLAG ANGLE_FORCE_CONSTANT
%FORMAT(5E16.8)
  7.70500000E+01  5.62900000E+01  6.51300000E+01  6.07400000E+01  4.38100000E+01
  6.36700000E+01  4.49000000E+01  6.03300000E+01  6.08400000E+01  4.36100000E+01
  6.54800000E+01  4.32800000E+01  7.64500000E+01  6.61000000E+01  6.03600000E+01
  4.32700000E+01  5.61700000E+01  4.82100000E+01  4.36300000E+01  7.66200000E+01
  5.73700000E+01  8.72100000E+01  6.73400000E+01  5.66800000E+01  6.81700000E+01
  4.48000000E+01  8.31500000E+01  5.01000000E+01  3.56400000E+01  4.78900000E+01
%FLAG ANGLE_EQUIL_VALUE
%FORMAT(5E16.8)
  1.93120765E+00  1.92649525E+00  1.87430989E+00  2.10888224E+00  1.91288168E+00
  2.09474507E+00  2.09230160E+00  1.96209999E+00  1.94010883E+00  1.93085858E+00
  1.93574550E+00  1.91270715E+00  2.14501057E+00  2.00765310E+00  1.94482122E+00
  1.91427794E+00  1.91305621E+00  1.88705080E+00  1.90153704E+00  2.22547028E+00
  2.04657396E+00  2.14762857E+00  2.09771213E+00  2.02528093E+00  2.14570870E+00
  2.09998106E+00  2.04622489E+00  2.02493187E+00  1.89455572E+00  1.85668205E+00
%FLAG DIHEDRAL_FORCE_CONSTANT
%FORMAT(5E16.8)
  0.00000000E+00  3.62500000E+00  1.66666667E-01  2.40000000E-01  0.00000000E+00
  6.20000000E-01  1.55555556E-01  0.00000000E+00  3.00000000E-02  1.41000000E+00
  1.03000000E+00  8.70000000E-01  2.50000000E+00  6.80000000E-01  2.00000000E-01
  4.40000000E-01  1.05000000E+00  5.00000000E-02  1.41000000E+00  4.03000000E+00
  3.66000000E+00  2.00000000E+00  4.50000000E-01  4.80000000E+00  1.23000000E-01
  3.00000000E-01  1.10000000E+00  1.05000000E+01
%FLAG DIHEDRAL_PERIODICITY
%FORMAT(5E16.8)
  2.00000000E+00  2.00000000E+00  3.00000000E+00  2.00000000E+00  1.00000000E+00
  1.00000000E+00  3.00000000E+00  2.00000000E+00  3.00000000E+00  1.00000000E+00
  2.00000000E+00  3.00000000E+00  2.00000000E+00  1.00000000E+00  2.00000000E+00
  3.00000000E+00  3.00000000E+00  3.00000000E+00  2.00000000E+00  1.00000000E+00
  2.00000000E+00  1.00000000E+00  2.00000000E+00  2.00000000E+00  3.00000000E+00
  3.00000000E+00  2.00000000E+00  2.00000000E+00
%FLAG DIHEDRAL_PHASE
%FORMAT(5E16.8)
  0.00000000E+00  3.14159400E+00  0.00000000E+00  3.14159400E+00  0.00000000E+00
  3.14159400E+00  0.00000000E+00  3.14159400E+00  3.14159400E+00  3.14159400E+00
  3.14159400E+00  0.00000000E+00  3.14159400E+00  0.00000000E+00  3.14159400E+00
  3.14159400E+00  3.14159400E+00  0.00000000E+00  3.14159400E+00  0.00000000E+00
  3.14159400E+00  0.00000000E+00  3.14159400E+00  3.14159400E+00  0.00000000E+00
  0.00000000E+00  3.14159400E+00  3.14159400E+00
%FLAG SCEE_SCALE_FACTOR
%FORMAT(5E16.8)
  1.20000000E+00  1.20000000E+00  1.20000000E+00  1.20000000E+00  1.20000000E+00
  1.20000000E+00  1.20000000E+00  1.20000000E+00  1.20000000E+00  1.20000000E+00
  1.20000000E+00  1.20000000E+00  1.20000000E+00  1.20000000E+00  1.20000000E+00
  1.20000000E+00  1.20000000E+00  1.20000000E+00  1.20000000E+00  1.20000000E+00
  1.20000000E+00  1.20000000E+00  1.20000000E+00  1.20000000E+00  1.20000000E+00
  1.20000000E+00  0.00000000E+00  0.00000000E+00
%FLAG SCNB_SCALE_FACTOR
%FORMAT(5E16.8)
  2.00000000E+00  2.00000000E+00  2.00000000E+00  2.00000000E+00  2.00000000E+00
  2.00000000E+00  2.00000000E+00  2.00000000E+00  2.00000000E+00  2.00000000E+00
  2.00000000E+00  2.00000000E+00  2.00000000E+00  2.00000000E+00  2.00000000E+00
  2.00000000E+00  2.00000000E+00  2.00000000E+00  2.00000000E+00  2.00000000E+00
  2.00000000E+00  2.00000000E+00  2.00000000E+00  2.00000000E+00  2.00000000E+00
  2.00000000E+00  0.00000000E+00  0.00000000E+00
%FLAG SOLTY
%FORMAT(5E16.8)
  0.00000000E+00  0.00000000E+00  0.00000000E+00  0.00000000E+00  0.00000000E+00
  0.00000000E+00  0.00000000E+00  0.00000000E+00  0.00000000E+00  0.00000000E+00
  0.00000000E+00  0.00000000E+00  0.00000000E+00  0.00000000E+00
%FLAG LENNARD_JONES_ACOEF
%FORMAT(5E16.8)
  5.03152404E+05  7.18991463E+05  1.02073671E+06  5.92438683E+05  8.43969952E+05
  6.96551276E+05  6.15869455E+05  8.65620051E+05  7.19505991E+05  7.22850509E+05
  4.37717034E+05  6.30925504E+05  5.17507491E+05  5.47655232E+05  3.76435470E+05
  5.94304835E+05  8.48258258E+05  6.99381362E+05  7.25299868E+05  5.17814271E+05
  7.01825028E+05  6.55497149E+05  9.31115275E+05  7.69642101E+05  7.90296020E+05
  5.74782316E+05  7.73425391E+05  8.49322032E+05  1.74176419E+02  3.03553352E+02
  2.25372434E+02  3.50407390E+02  1.15813907E+02  2.13197010E+02  2.72118326E+02
  1.10360882E-05  4.69084694E+04  6.97998263E+04  5.63013422E+04  6.36026248E+04
  3.86646725E+04  5.58085097E+04  6.34160397E+04  4.36660257E+00  3.39005767E+03
  6.30298721E+04  9.27554496E+04  7.52549148E+04  8.31063842E+04  5.27277400E+04
  7.48403283E+04  8.43518904E+04  8.53132435E+00  4.88692384E+03  6.90855956E+03
  6.80216136E+04  1.00235148E+05  8.12662403E+04  8.99910629E+04  5.68021765E+04
  8.07866982E+04  9.11435380E+04  8.80612241E+00  5.22955465E+03  7.41026906E+03
  7.94617769E+03  1.36475542E+03  2.23577481E+03  1.71458823E+03  2.35480845E+03
  9.87857350E+02  1.65195713E+03  2.01475241E+03  2.61760843E-03  5.24570081E+01
  9.04434904E+01  9.47421632E+01  1.34728399E-01  5.24591488E+04  7.75673747E+04
  6.27751680E+04  7.00036842E+04  4.36069364E+04  6.23418310E+04  7.05112106E+04
  6.05535196E+00  3.94664935E+03  5.62610481E+03  6.02863188E+03  6.76796831E+01
  4.56536476E+03
%FLAG LENNARD_JONES_BCOEF
%FORMAT(5E16.8)
  4.32634597E+02  5.36620538E+02  6.63431737E+02  4.76608379E+02  5.90251928E+02
  5.24668528E+02  3.67447838E+02  4.52010965E+02  4.03215362E+02  3.05601515E+02
  4.51916854E+02  5.62969425E+02  4.98871431E+02  3.88056827E+02  4.69350655E+02
  4.98393522E+02  6.17825399E+02  5.48900066E+02  4.22674891E+02  5.21008860E+02
  5.74088001E+02  4.95260330E+02  6.12468585E+02  5.44830041E+02  4.17467748E+02
  5.19385932E+02  5.70234696E+02  5.65406768E+02  3.81654050E+00  5.22789272E+00
  4.40751799E+00  4.15567637E+00  3.48534600E+00  4.47571103E+00  4.78443613E+00
  4.55498033E-04  9.08431526E+01  1.14981426E+02  1.01040256E+02  8.12052260E+01
  9.23664132E+01  1.05029928E+02  1.05935811E+02  4.15568027E-01  1.67944276E+01
  9.87712192E+01  1.24325688E+02  1.09570372E+02  8.70671420E+01  1.01173582E+02
  1.14083104E+02  1.14599119E+02  5.44840215E-01  1.89134207E+01  2.10929191E+01
  1.09393126E+02  1.37787728E+02  1.21392023E+02  9.65931103E+01  1.11953944E+02
  1.26366740E+02  1.27000718E+02  5.90150328E-01  2.08590256E+01  2.32899892E+01
  2.57122925E+01  1.29026271E+01  1.71355763E+01  1.46824710E+01  1.30109323E+01
  1.22938581E+01  1.50468782E+01  1.57231024E+01  8.47240681E-03  1.73959275E+00
  2.14252117E+00  2.33785449E+00  7.34107347E-02  9.01089277E+01  1.13692208E+02
  1.00073628E+02  7.99093400E+01  9.20079458E+01  1.04122183E+02  1.04776275E+02
  4.59018960E-01  1.69967767E+01  1.90347353E+01  2.10068861E+01  1.85338491E+00
  1.71467049E+01
%FLAG BONDS_INC_HYDROGEN
%FORMAT(10I8)
       0      72       2       3      75       4       3      78       4       9
      81       6      12      84       6      18      87       9      21      90
       4      21      93       4      24      96      11      24      99      11
      33     102      15      39     105       6      42     108       6      48
     111      17      54     114      17      57     117       6      63     120
       6      66     123       6      69     126       6
%FLAG BONDS_WITHOUT_HYDROGEN
%FORMAT(10I8)
       0       3       1       3       6       3       6       9       5       6
      69       5       9      12       5      12      15       5      15      18
       3      15      66       5      18      21       7      18      27       8
      21      24      10      27      30      12      27      33      13      33
      36      14      36      39       5      36      63       5      39      42
       5      42      45       5      45      48       5      45      60       5
      48      51      16      51      54      16      54      57       5      57
      60       5      60      63       5      66      69       5
%FLAG ANGLES_INC_HYDROGEN
%FORMAT(10I8)
       0       3      75       2       0       3      78       2       3       0
      72       3       6       3      75       5       6       3      78       5
       6       9      81       7       6      69     126       7       9      12
      84       7      12       9      81       7      15      12      84       7
      15      18      87      10      15      66     123       7      18      21
      90      12      18      21      93      12      21      18      87      16
      21      24      96      17      21      24      99      17      24      21
      90      18      24      21      93      18      27      18      87      19
      27      33     102      21      36      33     102      24      36      39
     105       7      36      63     120       7      39      42     108       7
      42      39     105       7      45      42     108       7      45      48
     111      26      51      48     111      28      51      54     114      28
      54      57     117       7      57      54     114      26      60      57
     117       7      60      63     120       7      66      69     126       7
      69      66     123       7      75       3      78      29      90      21
      93      29      96      24      99      30
%FLAG ANGLES_WITHOUT_HYDROGEN
%FORMAT(10I8)
       0       3       6       1       3       6       9       4       3       6
      69       4       6       9      12       6       6      69      66       6
       9       6      69       6       9      12      15       6      12      15
      18       4      12      15      66       6      15      18      21       8
      15      18      27       9      15      66      69       6      18      15
      66       4      18      21      24      11      18      27      30      13
      18      27      33      14      21      18      27      15      27      33
      36      20      30      27      33      22      33      36      39      23
      33      36      63      23      36      39      42       6      36      63
      60       6      39      36      63       6      39      42      45       6
      42      45      48       6      42      45      60       6      45      48
      51      25      45      60      57       6      45      60      63       6
      48      45      60       6      48      51      54      27      51      54
      57      25      54      57      60       6      57      60      63       6
%FLAG DIHEDRALS_INC_HYDROGEN
%FORMAT(10I8)
       3       6       9      81       2       3       6      69     126       2
      72       0       3       6       3       6       9      12      84       2
       6      69      66     123       2       9       6       3      75       1
       9       6       3      78       1       9       6      69     126       2
      12      15      18      87       5      12      15      66     123       2
      15      12       9      81       2      15      18      21      90       7
      15      18      21      93       7      15      66      69     126       2
      18      15      12      84       2      18      15      66     123       2
      18      21      24      96       9      18      21      24      99       9
      18      27      33     102      13      24      21      18      87      18
      27      18      21      90       7      27      18      21      93       7
      30      27      18      87      20      30      27     -18      87      21
      30      27      33     102      22      30      27     -33     102      13
      33      27      18      87       8      33      36      39     105       2
      33      36      63     120       2      36      39      42     108       2
      39      36      33     102      23      39      36      63     120       2
      42      45      48     111       2      45      42      39     105       2
      45      60      57     117       2      45      60      63     120       2
      48      45      42     108       2      48      51      54     114      24
      51      54      57     117       2      54      51      48     111      24
      57      60      63     120       2      60      57      54     114       2
      60      45      42     108       2      60      45      48     111       2
      63      60      57     117       2      63      36      33     102      23
      63      36      39     105       2      66      15      12      84       2
      66      15      18      87       5      69       6       3      75       1
      69       6       3      78       1      69       6       9      81       2
      72       0       3      75      25      72       0       3      78      25
      81       9      12      84       2      87      18      21      90       7
      87      18      21      93       7      90      21      24      96      26
      90      21      24      99      26      93      21      24      96      26
      93      21      24      99      26     105      39      42     108       2
     114      54      57     117       2     123      66      69     126       2
       6      12      -9     -81      27       9      15     -12     -84      27
      27      36     -33    -102      27      36      42     -39    -105      27
      39      45     -42    -108      27      45     111     -48     -51      28
      57     114     -54     -51      28      54      60     -57    -117      27
      36      60     -63    -120      27      15      69     -66    -123      27
       6      66     -69    -126      27
%FLAG DIHEDRALS_WITHOUT_HYDROGEN
%FORMAT(10I8)
       0       3       6       9       1       0       3       6      69       1
       3       6       9      12       2       3       6      69      66       2
       6       9      12      15       2       6      69     -66      15       2
       9       6      69      66       2       9      12      15      18       2
       9      12     -15      66       2      12       9       6      69       2
      12      15      18      21       4      12      15      18      27       1
      12      15     -66      69       2      15      18      21      24       6
      15      18      27      30       8      15      18      27      33       8
      18      15      66      69       2      18      27      33      36      10
      18      27     -33      36      11      18      27     -33      36      12
      21      18      15      66       4      21      18      27      30      14
      21      18     -27      30      15      21      18     -27      30      16
      21      18      27      33      17      24      21      18      27       7
      27      18      15      66       1      27      33      36      39      19
      27      33      36      63      19      30      27      33      36      13
      33      36      39      42       2      33      36      63      60       2
      36      39      42      45       2      36      63      60      57       2
      36      63     -60      45       2      39      36      63      60       2
      39      42      45      48       2      39      42     -45      60       2
      42      39      36      63       2      42      45      48      51       2
      42      45      60      57       2      42      45     -60      63       2
      45      48      51      54      24      45      60     -57      54       2
      48      45      60      57       2      48      45      60      63       2
      48      51     -54      57      24      51      48      45      60       2
      51      54     -57      60       2      54      57      60      63       2
       9      69      -6      -3      27      18      12     -15     -66      27
      18      33     -27     -30      28      39      63     -36     -33      28
      42      48     -45     -60      27      45      57     -60     -63      27
%FLAG EXCLUDED_ATOMS_LIST
%FORMAT(10I8)
       2       3       4      24      25      26      27       3       4       5
      23      24      25      26      27      28      43       4       5       6
      23      24      25      26      27      28      29      42      43       5
       6       7      23      24      26      27      28      29      43       6
       7       8      10      23      24      28      29      30      42       7
       8       9      10      11      12      23      24      28      29      30
      31      32      42      43       8       9      10      11      12      13
      23      24      29      30      31      32      33      34      35      42
       9      10      11      12      23      30      31      32      33      34
      10      30      31      32      33      34      11      12      13      14
      22      23      30      31      32      35      12      13      30      35
      13      14      15      21      22      30      35      36      41      14
      15      16      20      21      22      35      36      37      41      15
      16      17      21      22      35      36      37      41      16      17
      18      20      21      22      36      37      38      17      18      19
      20      21      22      36      37      38      40      41      18      19
      20      21      22      37      38      39      19      20      21      38
      39      40      20      21      22      38      39      40      21      22
      39      40      41      22      37      38      39      40      41      35
      36      40      41      24      29      30      42      43      26      27
      28      42      43      26      27      27       0      29       0      31
      32      32      33      34      33      34      34       0       0      37
       0       0      40       0       0      43       0
%FLAG HBOND_ACOEF
%FORMAT(5E16.8)

%FLAG HBOND_BCOEF
%FORMAT(5E16.8)

%FLAG HBCUT
%FORMAT(5E16.8)

%FLAG AMBER_ATOM_TYPE
%FORMAT(20a4)
oh  c3  ca  ca  ca  ca  c3  c3  n8  c   o   ns  ca  ca  ca  ca  ca  nb  ca  ca  
ca  ca  ca  ca  ho  h1  h1  ha  ha  hc  h1  h1  hn  hn  hn  ha  ha  h4  h4  ha  
ha  ha  ha  
%FLAG TREE_CHAIN_CLASSIFICATION
%FORMAT(20a4)
BLA BLA BLA BLA BLA BLA BLA BLA BLA BLA BLA BLA BLA BLA BLA BLA BLA BLA BLA BLA 
BLA BLA BLA BLA BLA BLA BLA BLA BLA BLA BLA BLA BLA BLA BLA BLA BLA BLA BLA BLA 
BLA BLA BLA 
%FLAG JOIN_ARRAY
%FORMAT(10I8)
       0       0       0       0       0       0       0       0       0       0
       0       0       0       0       0       0       0       0       0       0
       0       0       0       0       0       0       0       0       0       0
       0       0       0       0       0       0       0       0       0       0
       0       0       0
%FLAG IROTAT
%FORMAT(10I8)
       0       0       0       0       0       0       0       0       0       0
       0       0       0       0       0       0       0       0       0       0
       0       0       0       0       0       0       0       0       0       0
       0       0       0       0       0       0       0       0       0       0
       0       0       0
%FLAG RADIUS_SET
%FORMAT(1a80)
modified Bondi radii (mbondi)                                                   
%FLAG RADII
%FORMAT(5E16.8)
  1.50000000E+00  1.70000000E+00  1.70000000E+00  1.70000000E+00  1.70000000E+00
  1.70000000E+00  1.70000000E+00  1.70000000E+00  1.55000000E+00  1.70000000E+00
  1.50000000E+00  1.55000000E+00  1.70000000E+00  1.70000000E+00  1.70000000E+00
  1.70000000E+00  1.70000000E+00  1.55000000E+00  1.70000000E+00  1.70000000E+00
  1.70000000E+00  1.70000000E+00  1.70000000E+00  1.70000000E+00  8.00000000E-01
  1.30000000E+00  1.30000000E+00  1.30000000E+00  1.30000000E+00  1.30000000E+00
  1.30000000E+00  1.30000000E+00  1.30000000E+00  1.30000000E+00  1.30000000E+00
  1.30000000E+00  1.30000000E+00  1.30000000E+00  1.30000000E+00  1.30000000E+00
  1.30000000E+00  1.30000000E+00  1.30000000E+00
%FLAG SCREEN
%FORMAT(5E16.8)
  8.50000000E-01  7.20000000E-01  7.20000000E-01  7.20000000E-01  7.20000000E-01
  7.20000000E-01  7.20000000E-01  7.20000000E-01  7.90000000E-01  7.20000000E-01
  8.50000000E-01  7.90000000E-01  7.20000000E-01  7.20000000E-01  7.20000000E-01
  7.20000000E-01  7.20000000E-01  7.90000000E-01  7.20000000E-01  7.20000000E-01
  7.20000000E-01  7.20000000E-01  7.20000000E-01  7.20000000E-01  8.50000000E-01
  8.50000000E-01  8.50000000E-01  8.50000000E-01  8.50000000E-01  8.50000000E-01
  8.50000000E-01  8.50000000E-01  8.50000000E-01  8.50000000E-01  8.50000000E-01
  8.50000000E-01  8.50000000E-01  8.50000000E-01  8.50000000E-01  8.50000000E-01
  8.50000000E-01  8.50000000E-01  8.50000000E-01
%FLAG IPOL
%FORMAT(1I8)
       0
