
   56  0.0000000e+00
   2.0372744  -0.5537405   1.7587655   1.6885455  -0.2349954   0.2824709
   2.8085400   0.6233407  -0.3577531   2.8581570   2.0632940   0.1517546
   1.5195459   2.7712718  -0.0068748   1.4269471   3.9855707  -0.1670618
   0.3310055   1.9039504   0.1071735   0.3776273   0.5543708   0.2752395
  -0.8825061  -0.2236527   0.5424216  -1.0292422  -1.4520356  -0.3595211
   0.2230785  -2.3383513  -0.2518819   1.5195775  -1.5472645  -0.5667796
   2.7632654  -2.4600018  -0.5232222   2.6245370  -3.7157514  -1.4007756
   1.3642212  -4.5114248  -1.0290629   0.1432646  -3.5716061  -1.1549374
  -1.0809643  -4.4991712  -1.0469498  -0.5882968  -5.8535791  -1.6233622
   0.9119817  -5.6501354  -1.9930728   1.1056764  -5.4019723  -3.5089908
   1.2458726  -6.8201986  -4.0589093   1.8630636  -7.5883796  -2.8935141
   2.4290704  -8.6536422  -2.8977241   1.6697879  -6.8636024  -1.7453189
   1.5199899  -5.1061599   0.3864771  -1.2962059  -0.9762012  -2.1367718
   2.0534361   0.3704474   2.3689508   3.0351498  -1.0274855   1.8378032
   1.3014490  -1.2403233   2.2221386   2.6355571   0.6416420  -1.4558326
   3.7906837   0.1340787  -0.2001415   3.6322596   2.6641447  -0.3645765
   3.1146286   2.0922393   1.2348696  -0.6366638   2.4325680   0.0991486
  -0.8544404  -0.5944403   1.5937602  -1.7686163   0.4385481   0.4707241
  -1.9143536  -2.0388284  -0.0404500   0.2538314  -2.6828545   0.8072404
   1.4048645  -1.1995975  -1.6185597   3.6537380  -1.8902817  -0.8555127
   2.9707730  -2.7627020   0.5233366   2.5619655  -3.3901231  -2.4601833
   3.5321044  -4.3494311  -1.3108234   0.1665743  -3.1855510  -2.2009577
  -1.9478091  -4.0869886  -1.5990585  -1.3942003  -4.6118042   0.0117888
  -1.1750766  -6.1810926  -2.5043194  -0.6564552  -6.6682157  -0.8772852
   0.2708399  -4.8247764  -3.9490477   2.0411055  -4.8389216  -3.6929544
   1.8740195  -6.9201745  -4.9632511   0.2648500  -7.2890946  -4.2877040
   1.7365194  -4.3265002   1.1402424   0.6137945  -5.6454648   0.7218428
   2.3535514  -5.8335111   0.3943222  -2.2184210  -0.0099114  -1.8719429
