
   56  0.0000000e+00
   2.0281656  -0.5476160   1.7591641   1.6774194  -0.2359717   0.2818602
   2.7939095   0.6240293  -0.3624139   2.8370753   2.0671774   0.1389145
   1.4958301   2.7686748  -0.0249353   1.3976674   3.9810961  -0.1952446
   0.3108700   1.8971218   0.0969768   0.3636992   0.5484292   0.2720483
  -0.8924782  -0.2337503   0.5445954  -1.0364897  -1.4637140  -0.3549098
   0.2188850  -2.3459920  -0.2448788   1.5121532  -1.5517988  -0.5623433
   2.7590623  -2.4597177  -0.5190192   2.6231881  -3.7145683  -1.3983415
   1.3655195  -4.5145307  -1.0269431   0.1410429  -3.5784481  -1.1492921
  -1.0791655  -4.5120035  -1.0392741  -0.5828992  -5.8625506  -1.6217613
   0.9165079  -5.6534270  -1.9921029   1.1088606  -5.4028919  -3.5077952
   1.2531312  -6.8200185  -4.0594659   1.8734648  -7.5875113  -2.8953023
   2.4429418  -8.6509051  -2.9011057   1.6784485  -6.8646823  -1.7461371
   1.5246495  -5.1108362   0.3876064  -1.3155497  -0.9925454  -2.1334895
   2.0436771   0.3788561   2.3659661   3.0269429  -1.0194262   1.8382901
   1.2944611  -1.2340850   2.2260240   2.6218769   0.6350740  -1.4607311
   3.7780903   0.1400742  -0.2013827   3.6093069   2.6682853  -0.3798988
   3.0920217   2.1032174   1.2221933  -0.6589012   2.4222159   0.0898622
  -0.8580560  -0.6047228   1.5952857  -1.7830943   0.4230469   0.4768973
  -1.9199594  -2.0501265  -0.0309404   0.2495463  -2.6912540   0.8141270
   1.3907092  -1.2080565  -1.6143749   3.6473768  -1.8869785  -0.8520111
   2.9689799  -2.7629379   0.5270075   2.5586431  -3.3870695  -2.4570296
   3.5324073  -4.3461503  -1.3103444   0.1630832  -3.1893484  -2.1945268
  -1.9523494  -4.1048151  -1.5851407  -1.3865556  -4.6292069   0.0206055
  -1.1696494  -6.1879456  -2.5035104  -0.6483183  -6.6804042  -0.8789794
   0.2722443  -4.8276636  -3.9470245   2.0425118  -4.8367781  -3.6913182
   1.8810138  -6.9169670  -4.9643199   0.2734382  -7.2917408  -4.2881782
   1.7379202  -4.3312659   1.1423738   0.6213588  -5.6551737   0.7226510
   2.3616714  -5.8342019   0.3937548  -1.9568340   0.1780257  -1.8663514
