
   56  0.0000000e+00
   2.1398340  -0.5428485   1.7479316   1.6905349  -0.2493223   0.2933487
   2.7486523   0.6211617  -0.4299968   2.8045782   2.0674951   0.0615087
   1.4465771   2.7515198  -0.0181350   1.3207031   3.9602127  -0.1919557
   0.2803148   1.8674554   0.1926581   0.3673106   0.5202536   0.3724900
  -0.8410337  -0.3039386   0.7151464  -1.0392620  -1.4275667  -0.3147990
   0.1898268  -2.3595575  -0.2193073   1.4978971  -1.5818201  -0.5261671
   2.7314314  -2.5063438  -0.4742804   2.5862144  -3.7445067  -1.3754361
   1.3103967  -4.5282808  -1.0315605   0.1014609  -3.5704463  -1.1476954
  -1.1323938  -4.4890255  -1.0625036  -0.6508810  -5.8370659  -1.6635488
   0.8524298  -5.6402462  -2.0228637   1.0546562  -5.3595211  -3.5318142
   1.1848488  -6.7658938  -4.1136875   1.7894848  -7.5664448  -2.9635758
   2.3461496  -8.6364032  -2.9901689   1.5969707  -6.8670702  -1.7998717
   1.4493725  -5.1563304   0.3716808  -1.2828903  -0.7725045  -2.0322939
   2.1553638   0.3835476   2.3548713   3.1585570  -0.9762888   1.7662409
   1.4617965  -1.2583312   2.2538845   2.5032511   0.6249355  -1.5148176
   3.7481922   0.1506813  -0.3380308   3.5339709   2.6766309  -0.5074058
   3.1271190   2.1112758   1.1262954  -0.6951781   2.3776183   0.2551361
  -0.7007106  -0.7786065   1.7105793  -1.7396513   0.3412361   0.7779379
  -1.9682163  -1.9894752  -0.0954829   0.2135007  -2.7246643   0.8336656
   1.3846891  -1.2595031  -1.5865364   3.6345167  -1.9423954  -0.7836114
   2.9180722  -2.8289608   0.5701595   2.5406525  -3.3988285  -2.4292281
   3.4833073  -4.3930374  -1.2859587   0.1290743  -3.1528562  -2.1799071
  -1.9974722  -4.0667362  -1.6104850  -1.4540894  -4.6197720  -0.0082036
  -1.2371862  -6.1418591  -2.5529399  -0.7300505  -6.6651662  -0.9335771
   0.2271914  -4.7644848  -3.9616357   1.9956073  -4.8004282  -3.6989300
   1.8162912  -6.8508930  -5.0172817   0.2007712  -7.2205647  -4.3576690
   1.6759065  -4.3965014   1.1426063   0.5322131  -5.6859418   0.6924292
   2.2697174  -5.8986556   0.3680557  -0.4809174   0.3205902  -1.8798777
