
   56  0.0000000e+00
   1.9014732  -0.8526273   1.6663885   1.6580949  -0.2663374   0.2500300
   2.8622684   0.6271447  -0.1439280   3.0560430   1.8211998   0.7963261
   1.7684626   2.5663409   1.1539294   1.7985031   3.6854278   1.6610508
   0.5011865   1.8931484   0.8184028   0.4221700   0.6267248   0.3210545
  -0.8648085   0.1505640  -0.3050378  -1.1213731  -1.3660624  -0.4616911
   0.1716273  -2.2374271  -0.4018666   1.4183080  -1.4002360  -0.8072681
   2.6956898  -2.2298203  -1.0743342   2.4580450  -3.5252118  -1.8626347
   1.3767686  -4.3753875  -1.1864165   0.0662190  -3.5558080  -1.1691011
  -1.0075978  -4.5702137  -0.7313966  -0.5033014  -5.9295832  -1.2840198
   0.8789955  -5.6426238  -1.9428292   0.7787189  -5.5420789  -3.4843781
   0.9643357  -6.9941928  -3.9206287   1.8538386  -7.5770840  -2.8257242
   2.5184422  -8.5838679  -2.8402318   1.7912054  -6.7532881  -1.7316767
   1.8432453  -4.8048043   0.2214774  -2.1924905  -1.6054555  -1.9606965
   2.1194847  -0.0447534   2.3886155   2.7608049  -1.5530725   1.6708233
   1.0178719  -1.3903231   2.0591035   2.6922968   0.9918285  -1.1806539
   3.7902325   0.0212496  -0.1687359   3.7571861   2.5684359   0.3730031
   3.5179460   1.5030278   1.7562632  -0.4014207   2.5183784   0.9205647
  -1.7380822   0.6439561   0.1652265  -0.8330450   0.5806464  -1.3316760
  -1.8017150  -1.7126363   0.3427331   0.2894337  -2.5105071   0.6671097
   1.1680342  -0.8946553  -1.7705170   3.4210571  -1.6009706  -1.6277732
   3.1904277  -2.4775024  -0.1136265   2.1329340  -3.2602453  -2.8910031
   3.4088222  -4.0910803  -1.9598773  -0.1483874  -3.2909919  -2.2287231
  -2.0050651  -4.2919444  -1.1208674  -1.0848870  -4.5975628   0.3755717
  -1.2061784  -6.3785308  -2.0136091  -0.3611793  -6.6773692  -0.4804524
  -0.1750496  -5.0876040  -3.8123529   1.6059162  -4.9255585  -3.8867010
   1.4291228  -7.1381604  -4.9134341   0.0114949  -7.5657694  -3.9181578
   2.0339122  -3.9368310   0.8792034   1.1009549  -5.4459168   0.7328405
   2.7779140  -5.3921288   0.1435123  -1.3154333  -1.0663223  -2.8558237
