
   56  0.0000000e+00
   2.0489676  -0.9335377   1.1677381   1.7391523   0.2341204   0.1970859
   3.0188123   0.6326003  -0.5808945   4.0564940   1.3716087   0.2630054
   3.4678686   2.6046987   0.9344737   4.1381300   3.5994378   1.1982115
   2.0435626   2.4980192   1.3075750   1.2566090   1.4221473   1.0331196
  -0.1393101   1.3392255   1.5904908  -1.1781248   1.0210757   0.5080724
  -0.7917153  -0.2745794  -0.2254525   0.6252462  -0.1585657  -0.8433863
   0.9964482  -1.4027533  -1.6786786  -0.0750983  -1.7887361  -2.7119161
  -1.4435423  -1.9779924  -2.0409622  -1.8009103  -0.6681601  -1.3034404
  -3.2811011  -0.8276874  -0.9110587  -3.8742591  -1.7468202  -2.0122606
  -2.6929621  -2.1010778  -2.9646154  -2.7035420  -1.2340110  -4.2469703
  -3.5974228  -2.0438468  -5.1842847  -3.3738117  -3.4822497  -4.7255472
  -3.6150509  -4.5125121  -5.3049516  -2.8302558  -3.4567873  -3.4668406
  -1.4048171  -3.2065199  -1.1078087  -1.3383091   2.4535458  -0.6792362
   2.7660455  -0.6146888   1.9492912   2.4972866  -1.7914038   0.6296686
   1.1403071  -1.2984769   1.6858884   2.7145801   1.2913561  -1.4235095
   3.4756825  -0.2695568  -1.0348699   4.9351435   1.6859109  -0.3335963
   4.4487850   0.7156642   1.0726780   1.6460653   3.3443512   1.8912995
  -0.1745371   0.5136293   2.3392218  -0.3967837   2.2744471   2.1235468
  -2.1744051   0.8939471   0.9729826  -0.7835501  -1.0702582   0.5548364
   0.5668308   0.6993937  -1.5554608   1.9529780  -1.2217694  -2.2078195
   1.1821994  -2.2621614  -1.0030955  -0.1379073  -0.9750599  -3.4643250
   0.2308273  -2.7081871  -3.2545900  -1.7541068   0.1437238  -2.0636906
  -3.7921195   0.1537613  -0.8561059  -3.3766085  -1.2984281   0.0898018
  -4.7049380  -1.2680133  -2.5676624  -4.2766988  -2.6876618  -1.5906637
  -3.0604497  -0.2049493  -4.0538796  -1.6849416  -1.1638750  -4.6751110
  -3.3723388  -1.9429646  -6.2620596  -4.6763788  -1.8136024  -5.0519684
  -0.6034287  -3.1238455  -0.3501824  -2.3568784  -3.3547334  -0.5634108
  -1.2239973  -4.1220055  -1.7022426  -2.5307206   2.8947268  -0.1959217
